REMARK  7 active torsions:
REMARK  status: ('A' for Active; 'I' for Inactive)
REMARK    1  A    between atoms: O_1  and  C_22 
REMARK    2  A    between atoms: C_6  and  C_13 
REMARK    3  A    between atoms: C_13  and  C_20 
REMARK    4  A    between atoms: C_20  and  C_24 
REMARK    5  A    between atoms: C_24  and  C_25 
REMARK    6  A    between atoms: C_25  and  C_26 
REMARK    7  A    between atoms: C_25  and  C_27 
ROOT
ATOM      1  O   *** d   1      -5.878  -3.882  -2.406  0.00  0.00    -0.395 OA
ATOM      2  H   *** d   1      -6.244  -3.498  -3.206  0.00  0.00     0.210 HD
ENDROOT
BRANCH   1   3
ATOM      3  C   *** d   1      -4.770  -3.120  -1.990  0.00  0.00     0.122 C 
ATOM      4  C   *** d   1      -4.073  -3.823  -0.832  0.00  0.00     0.066 C 
ATOM      5  C   *** d   1      -2.925  -2.982  -0.311  0.00  0.00    -0.072 C 
ATOM      6  C   *** d   1      -3.231  -1.536   0.069  0.00  0.00    -0.017 C 
ATOM      7  C   *** d   1      -1.710  -3.535  -0.157  0.00  0.00    -0.023 C 
ATOM      8  C   *** d   1      -1.907  -0.729   0.259  0.00  0.00     0.003 C 
ATOM      9  C   *** d   1      -4.047  -0.894  -1.082  0.00  0.00     0.016 C 
ATOM     10  C   *** d   1      -4.076  -1.554   1.363  0.00  0.00     0.020 C 
ATOM     11  C   *** d   1      -0.862  -1.507   1.086  0.00  0.00    -0.001 C 
ATOM     12  C   *** d   1      -2.101   0.708   0.791  0.00  0.00     0.007 C 
ATOM     13  C   *** d   1       0.397  -0.651   1.290  0.00  0.00    -0.001 C 
ATOM     14  C   *** d   1      -0.503  -2.817   0.369  0.00  0.00     0.033 C 
ATOM     15  C   *** d   1       0.154   0.707   1.988  0.00  0.00    -0.036 C 
ATOM     16  C   *** d   1       1.560  -1.270   2.067  0.00  0.00     0.006 C 
ATOM     17  C   *** d   1       1.615   1.231   2.084  0.00  0.00    -0.002 C 
ATOM     18  C   *** d   1      -0.788   1.475   1.039  0.00  0.00     0.010 C 
ATOM     19  C   *** d   1      -0.457   0.572   3.399  0.00  0.00     0.016 C 
ATOM     20  C   *** d   1       2.428  -0.048   2.422  0.00  0.00     0.006 C 
ATOM     21  C   *** d   1      -5.239  -1.733  -1.567  0.00  0.00     0.033 C 
BRANCH  17  22
ATOM     22  C   *** d   1       1.958   2.416   3.025  0.00  0.00    -0.014 C 
ATOM     23  C   *** d   1       1.121   3.672   2.726  0.00  0.00     0.010 C 
BRANCH  22  24
ATOM     24  C   *** d   1       3.467   2.759   2.935  0.00  0.00     0.005 C 
BRANCH  24  25
ATOM     25  C   *** d   1       3.959   3.796   3.963  0.00  0.00     0.005 C 
BRANCH  25  26
ATOM     26  C   *** d   1       5.499   3.869   4.144  0.00  0.00    -0.012 C 
BRANCH  26  27
ATOM     27  C   *** d   1       5.841   4.769   5.363  0.00  0.00    -0.019 C 
ATOM     28  C   *** d   1       5.827   6.275   5.055  0.00  0.00     0.010 C 
ATOM     29  C   *** d   1       7.141   4.368   6.084  0.00  0.00     0.010 C 
ENDBRANCH  26  27
BRANCH  26  30
ATOM     30  C   *** d   1       6.179   4.251   2.810  0.00  0.00     0.000 C 
ATOM     31  C   *** d   1       7.712   4.231   2.801  0.00  0.00     0.005 C 
ENDBRANCH  26  30
ENDBRANCH  25  26
ENDBRANCH  24  25
ENDBRANCH  22  24
ENDBRANCH  17  22
ENDBRANCH   1   3
TORSDOF 7
